<VTKFile type="UnstructuredGrid"  version="0.1"   > 
<UnstructuredGrid> 
<Piece  NumberOfPoints="         19044" NumberOfCells="        37812"> 
<Points> 
<DataArray  type="Float64"  NumberOfComponents="3"  format="ascii" > 
0.011430 0.011430 0.0 
0.011430 0.003063 0.0 
0.003063 0.011430 0.0 
0.003063 0.003063 0.0 
0.025923 0.011430 0.0 
0.025923 0.003063 0.0 
0.017555 0.011430 0.0 
0.017555 0.003063 0.0 
0.040416 0.011430 0.0 
0.040416 0.003063 0.0 
0.032048 0.011430 0.0 
0.032048 0.003063 0.0 
0.054908 0.011430 0.0 
0.054908 0.003063 0.0 
0.046541 0.011430 0.0 
0.046541 0.003063 0.0 
0.069401 0.011430 0.0 
0.069401 0.003063 0.0 
0.061034 0.011430 0.0 
0.061034 0.003063 0.0 
0.083894 0.011430 0.0 
0.083894 0.003063 0.0 
0.075526 0.011430 0.0 
0.075526 0.003063 0.0 
0.098387 0.011430 0.0 
0.098387 0.003063 0.0 
0.090019 0.011430 0.0 
0.090019 0.003063 0.0 
0.112879 0.011430 0.0 
0.112879 0.003063 0.0 
0.104512 0.011430 0.0 
0.104512 0.003063 0.0 
0.127372 0.011430 0.0 
0.127372 0.003063 0.0 
0.119005 0.011430 0.0 
0.119005 0.003063 0.0 
0.141865 0.011430 0.0 
0.141865 0.003063 0.0 
0.133497 0.011430 0.0 
0.133497 0.003063 0.0 
0.156358 0.011430 0.0 
0.156358 0.003063 0.0 
0.147990 0.011430 0.0 
0.147990 0.003063 0.0 
0.170850 0.011430 0.0 
0.170850 0.003063 0.0 
0.162483 0.011430 0.0 
0.162483 0.003063 0.0 
0.185343 0.011430 0.0 
0.185343 0.003063 0.0 
0.176976 0.011430 0.0 
0.176976 0.003063 0.0 
0.199836 0.011430 0.0 
0.199836 0.003063 0.0 
0.191468 0.011430 0.0 
0.191468 0.003063 0.0 
0.214329 0.011430 0.0 
0.214329 0.003063 0.0 
0.205961 0.011430 0.0 
0.205961 0.003063 0.0 
0.228821 0.011430 0.0 
0.228821 0.003063 0.0 
0.220454 0.011430 0.0 
0.220454 0.003063 0.0 
0.243314 0.011430 0.0 
0.243314 0.003063 0.0 
0.234947 0.011430 0.0 
0.234947 0.003063 0.0 
0.257807 0.011430 0.0 
0.257807 0.003063 0.0 
0.249439 0.011430 0.0 
0.249439 0.003063 0.0 
0.272300 0.011430 0.0 
0.272300 0.003063 0.0 
0.263932 0.011430 0.0 
0.263932 0.003063 0.0 
0.286792 0.011430 0.0 
0.286792 0.003063 0.0 
0.278425 0.011430 0.0 
0.278425 0.003063 0.0 
0.301285 0.011430 0.0 
0.301285 0.003063 0.0 
0.292918 0.011430 0.0 
0.292918 0.003063 0.0 
0.315778 0.011430 0.0 
0.315778 0.003063 0.0 
0.307411 0.011430 0.0 
0.307411 0.003063 0.0 
0.330271 0.011430 0.0 
0.330271 0.003063 0.0 
0.321903 0.011430 0.0 
0.321903 0.003063 0.0 
0.344763 0.011430 0.0 
0.344763 0.003063 0.0 
0.336396 0.011430 0.0 
0.336396 0.003063 0.0 
0.359256 0.011430 0.0 
0.359256 0.003063 0.0 
0.350889 0.011430 0.0 
0.350889 0.003063 0.0 
0.373749 0.011430 0.0 
0.373749 0.003063 0.0 
0.365382 0.011430 0.0 
0.365382 0.003063 0.0 
0.388242 0.011430 0.0 
0.388242 0.003063 0.0 
0.379874 0.011430 0.0 
0.379874 0.003063 0.0 
0.402734 0.011430 0.0 
0.402734 0.003063 0.0 
0.394367 0.011430 0.0 
0.394367 0.003063 0.0 
0.417227 0.011430 0.0 
0.417227 0.003063 0.0 
0.408860 0.011430 0.0 
0.408860 0.003063 0.0 
0.431720 0.011430 0.0 
0.431720 0.003063 0.0 
0.423353 0.011430 0.0 
0.423353 0.003063 0.0 
0.446213 0.011430 0.0 
0.446213 0.003063 0.0 
0.437845 0.011430 0.0 
0.437845 0.003063 0.0 
0.460705 0.011430 0.0 
0.460705 0.003063 0.0 
0.452338 0.011430 0.0 
0.452338 0.003063 0.0 
0.475198 0.011430 0.0 
0.475198 0.003063 0.0 
0.466831 0.011430 0.0 
0.466831 0.003063 0.0 
0.489691 0.011430 0.0 
0.489691 0.003063 0.0 
0.481324 0.011430 0.0 
0.481324 0.003063 0.0 
0.504184 0.011430 0.0 
0.504184 0.003063 0.0 
0.495816 0.011430 0.0 
0.495816 0.003063 0.0 
0.518676 0.011430 0.0 
0.518676 0.003063 0.0 
0.510309 0.011430 0.0 
0.510309 0.003063 0.0 
0.533169 0.011430 0.0 
0.533169 0.003063 0.0 
0.524802 0.011430 0.0 
0.524802 0.003063 0.0 
0.547662 0.011430 0.0 
0.547662 0.003063 0.0 
0.539295 0.011430 0.0 
0.539295 0.003063 0.0 
0.562155 0.011430 0.0 
0.562155 0.003063 0.0 
0.553787 0.011430 0.0 
0.553787 0.003063 0.0 
0.576647 0.011430 0.0 
0.576647 0.003063 0.0 
0.568280 0.011430 0.0 
0.568280 0.003063 0.0 
0.591140 0.011430 0.0 
0.591140 0.003063 0.0 
0.582773 0.011430 0.0 
0.582773 0.003063 0.0 
0.605633 0.011430 0.0 
0.605633 0.003063 0.0 
0.597266 0.011430 0.0 
0.597266 0.003063 0.0 
0.620126 0.011430 0.0 
0.620126 0.003063 0.0 
0.611758 0.011430 0.0 
0.611758 0.003063 0.0 
0.634618 0.011430 0.0 
0.634618 0.003063 0.0 
0.626251 0.011430 0.0 
0.626251 0.003063 0.0 
0.649111 0.011430 0.0 
0.649111 0.003063 0.0 
0.640744 0.011430 0.0 
0.640744 0.003063 0.0 
0.663604 0.011430 0.0 
0.663604 0.003063 0.0 
0.655237 0.011430 0.0 
0.655237 0.003063 0.0 
0.678097 0.011430 0.0 
0.678097 0.003063 0.0 
0.669729 0.011430 0.0 
0.669729 0.003063 0.0 
0.692589 0.011430 0.0 
0.692589 0.003063 0.0 
0.684222 0.011430 0.0 
0.684222 0.003063 0.0 
0.707082 0.011430 0.0 
0.707082 0.003063 0.0 
0.698715 0.011430 0.0 
0.698715 0.003063 0.0 
0.721575 0.011430 0.0 
0.721575 0.003063 0.0 
0.713208 0.011430 0.0 
0.713208 0.003063 0.0 
0.736068 0.011430 0.0 
0.736068 0.003063 0.0 
0.727700 0.011430 0.0 
0.727700 0.003063 0.0 
0.750561 0.011430 0.0 
0.750561 0.003063 0.0 
0.742193 0.011430 0.0 
0.742193 0.003063 0.0 
0.765053 0.011430 0.0 
0.765053 0.003063 0.0 
0.756686 0.011430 0.0 
0.756686 0.003063 0.0 
0.779546 0.011430 0.0 
0.779546 0.003063 0.0 
0.771179 0.011430 0.0 
0.771179 0.003063 0.0 
0.794039 0.011430 0.0 
0.794039 0.003063 0.0 
0.785671 0.011430 0.0 
0.785671 0.003063 0.0 
0.808532 0.011430 0.0 
0.808532 0.003063 0.0 
0.800164 0.011430 0.0 
0.800164 0.003063 0.0 
0.823024 0.011430 0.0 
0.823024 0.003063 0.0 
0.814657 0.011430 0.0 
0.814657 0.003063 0.0 
0.837517 0.011430 0.0 
0.837517 0.003063 0.0 
0.829150 0.011430 0.0 
0.829150 0.003063 0.0 
0.852010 0.011430 0.0 
0.852010 0.003063 0.0 
0.843642 0.011430 0.0 
0.843642 0.003063 0.0 
0.866503 0.011430 0.0 
0.866503 0.003063 0.0 
0.858135 0.011430 0.0 
0.858135 0.003063 0.0 
0.880995 0.011430 0.0 
0.880995 0.003063 0.0 
0.872628 0.011430 0.0 
0.872628 0.003063 0.0 
0.895488 0.011430 0.0 
0.895488 0.003063 0.0 
0.887121 0.011430 0.0 
0.887121 0.003063 0.0 
0.909981 0.011430 0.0 
0.909981 0.003063 0.0 
0.901613 0.011430 0.0 
0.901613 0.003063 0.0 
0.924474 0.011430 0.0 
0.924474 0.003063 0.0 
0.916106 0.011430 0.0 
0.916106 0.003063 0.0 
0.938966 0.011430 0.0 
0.938966 0.003063 0.0 
0.930599 0.011430 0.0 
0.930599 0.003063 0.0 
0.953459 0.011430 0.0 
0.953459 0.003063 0.0 
0.945092 0.011430 0.0 
0.945092 0.003063 0.0 
0.967952 0.011430 0.0 
0.967952 0.003063 0.0 
0.959584 0.011430 0.0 
0.959584 0.003063 0.0 
0.982445 0.011430 0.0 
0.982445 0.003063 0.0 
0.974077 0.011430 0.0 
0.974077 0.003063 0.0 
0.996937 0.011430 0.0 
0.996937 0.003063 0.0 
0.988570 0.011430 0.0 
0.988570 0.003063 0.0 
0.011430 0.025923 0.0 
0.011430 0.017555 0.0 
0.003063 0.025923 0.0 
0.003063 0.017555 0.0 
0.025923 0.025923 0.0 
0.025923 0.017555 0.0 
0.017555 0.025923 0.0 
0.017555 0.017555 0.0 
0.040416 0.025923 0.0 
0.040416 0.017555 0.0 
0.032048 0.025923 0.0 
0.032048 0.017555 0.0 
0.054908 0.025923 0.0 
0.054908 0.017555 0.0 
0.046541 0.025923 0.0 
0.046541 0.017555 0.0 
0.069401 0.025923 0.0 
0.069401 0.017555 0.0 
0.061034 0.025923 0.0 
0.061034 0.017555 0.0 
0.083894 0.025923 0.0 
0.083894 0.017555 0.0 
0.075526 0.025923 0.0 
0.075526 0.017555 0.0 
0.098387 0.025923 0.0 
0.098387 0.017555 0.0 
0.090019 0.025923 0.0 
0.090019 0.017555 0.0 
0.112879 0.025923 0.0 
0.112879 0.017555 0.0 
0.104512 0.025923 0.0 
0.104512 0.017555 0.0 
0.127372 0.025923 0.0 
0.127372 0.017555 0.0 
0.119005 0.025923 0.0 
0.119005 0.017555 0.0 
0.141865 0.025923 0.0 
0.141865 0.017555 0.0 
0.133497 0.025923 0.0 
0.133497 0.017555 0.0 
0.156358 0.025923 0.0 
0.156358 0.017555 0.0 
0.147990 0.025923 0.0 
0.147990 0.017555 0.0 
0.170850 0.025923 0.0 
0.170850 0.017555 0.0 
0.162483 0.025923 0.0 
0.162483 0.017555 0.0 
0.185343 0.025923 0.0 
0.185343 0.017555 0.0 
0.176976 0.025923 0.0 
0.176976 0.017555 0.0 
0.199836 0.025923 0.0 
0.199836 0.017555 0.0 
0.191468 0.025923 0.0 
0.191468 0.017555 0.0 
0.214329 0.025923 0.0 
0.214329 0.017555 0.0 
0.205961 0.025923 0.0 
0.205961 0.017555 0.0 
0.228821 0.025923 0.0 
0.228821 0.017555 0.0 
0.220454 0.025923 0.0 
0.220454 0.017555 0.0 
0.243314 0.025923 0.0 
0.243314 0.017555 0.0 
0.234947 0.025923 0.0 
0.234947 0.017555 0.0 
0.257807 0.025923 0.0 
0.257807 0.017555 0.0 
0.249439 0.025923 0.0 
0.249439 0.017555 0.0 
0.272300 0.025923 0.0 
0.272300 0.017555 0.0 
0.263932 0.025923 0.0 
0.263932 0.017555 0.0 
0.286792 0.025923 0.0 
0.286792 0.017555 0.0 
0.278425 0.025923 0.0 
0.278425 0.017555 0.0 
0.301285 0.025923 0.0 
0.301285 0.017555 0.0 
0.292918 0.025923 0.0 
0.292918 0.017555 0.0 
0.315778 0.025923 0.0 
0.315778 0.017555 0.0 
0.307411 0.025923 0.0 
0.307411 0.017555 0.0 
0.330271 0.025923 0.0 
0.330271 0.017555 0.0 
0.321903 0.025923 0.0 
0.321903 0.017555 0.0 
0.344763 0.025923 0.0 
0.344763 0.017555 0.0 
0.336396 0.025923 0.0 
0.336396 0.017555 0.0 
0.359256 0.025923 0.0 
0.359256 0.017555 0.0 
0.350889 0.025923 0.0 
0.350889 0.017555 0.0 
0.373749 0.025923 0.0 
0.373749 0.017555 0.0 
0.365382 0.025923 0.0 
0.365382 0.017555 0.0 
0.388242 0.025923 0.0 
0.388242 0.017555 0.0 
0.379874 0.025923 0.0 
0.379874 0.017555 0.0 
0.402734 0.025923 0.0 
0.402734 0.017555 0.0 
0.394367 0.025923 0.0 
0.394367 0.017555 0.0 
0.417227 0.025923 0.0 
0.417227 0.017555 0.0 
0.408860 0.025923 0.0 
0.408860 0.017555 0.0 
0.431720 0.025923 0.0 
0.431720 0.017555 0.0 
0.423353 0.025923 0.0 
0.423353 0.017555 0.0 
0.446213 0.025923 0.0 
0.446213 0.017555 0.0 
0.437845 0.025923 0.0 
0.437845 0.017555 0.0 
0.460705 0.025923 0.0 
0.460705 0.017555 0.0 
0.452338 0.025923 0.0 
0.452338 0.017555 0.0 
0.475198 0.025923 0.0 
0.475198 0.017555 0.0 
0.466831 0.025923 0.0 
0.466831 0.017555 0.0 
0.489691 0.025923 0.0 
0.489691 0.017555 0.0 
0.481324 0.025923 0.0 
0.481324 0.017555 0.0 
0.504184 0.025923 0.0 
0.504184 0.017555 0.0 
0.495816 0.025923 0.0 
0.495816 0.017555 0.0 
0.518676 0.025923 0.0 
0.518676 0.017555 0.0 
0.510309 0.025923 0.0 
0.510309 0.017555 0.0 
0.533169 0.025923 0.0 
0.533169 0.017555 0.0 
0.524802 0.025923 0.0 
0.524802 0.017555 0.0 
0.547662 0.025923 0.0 
[...]
<PointData  Vectors="sigma"> 
<DataArray  type="Float64"  Name="sigma" NumberOfComponents="3" format="ascii"> 
-7.496682   2464.882967   -4.610706   
-7.652754   2464.816079   5.201811   
7.222094   2499.226778   -4.655298   
7.066022   2499.159890   5.157219   
-8.213812   2418.065042   -3.836718   
-8.317815   2418.020469   5.450864   
5.717562   2450.571581   -3.866434   
5.613558   2450.527008   5.421149   
-9.964157   2373.104725   -3.211279   
-9.968148   2373.103014   5.627552   
3.294090   2404.040635   -3.212419   
3.290100   2404.038924   5.626412   
-12.503390   2329.539578   -2.819823   
-12.371822   2329.595964   5.695157   
0.269080   2359.342009   -2.782232   
0.400648   2359.398396   5.732748   
-15.470137   2286.773159   -2.722244   
-15.178548   2286.898125   5.627920   
-2.944892   2315.998731   -2.638932   
-2.653303   2316.123698   5.711231   
-18.421968   2244.126503   -2.955332   
-17.955787   2244.326295   5.409946   
-5.874051   2273.404977   -2.822137   
-5.407869   2273.604769   5.543141   
-20.867828   2200.884808   -3.535004   
-20.221411   2201.161844   5.034244   
-8.013957   2230.877174   -3.350313   
-7.367540   2231.154210   5.218934   
-22.297337   2156.339722   -4.458229   
-21.473234   2156.692909   4.501921   
-8.857113   2187.700245   -4.222771   
-8.033010   2188.053432   4.737379   
-22.207451   2109.827610   -5.704714   
-21.215853   2110.252581   3.821521   
-7.918097   2143.169435   -5.421401   
-6.926499   2143.594406   4.104835   
-20.126891   2060.763977   -7.238460   
-18.985149   2061.253295   3.008430   
-4.756557   2096.628090   -6.912248   
-3.614815   2097.117408   3.334642   
-15.638509   2008.673919   -9.009362   
-14.370600   2009.217309   2.084250   
1.001909   2047.501561   -8.647102   
2.269818   2048.044950   2.446510   
-8.399486   1953.218138   -10.955072   
-7.035288   1953.802794   1.076061   
9.647213   1995.327103   -10.565301   
11.011411   1995.911759   1.465831   
1.841066   1894.213766   -13.003270   
3.266795   1894.824793   0.015458   
21.369157   1939.779313   -12.595919   
22.794886   1940.390340   0.422809   
15.227783   1831.649068   -15.074462   
16.676789   1832.270071   -1.062668   
36.245474   1880.690348   -14.660460   
37.694480   1881.311350   -0.648666   
31.788858   1765.691037   -17.085340   
33.221142   1766.304872   -2.121636   
54.234414   1818.064001   -16.676116   
55.666698   1818.677836   -1.712412   
51.430864   1696.685086   -18.952605   
52.806728   1697.274741   -3.124723   
75.172686   1752.082670   -18.559501   
76.548549   1752.672326   -2.731619   
73.939294   1625.146388   -20.597060   
75.221551   1625.695927   -4.037045   
98.779318   1683.106443   -20.230701   
100.061574   1683.655981   -3.670686   
98.985248   1551.742941   -21.947707   
100.141402   1552.238436   -4.827445   
124.665642   1611.663859   -21.617377   
125.821795   1612.159354   -4.497115   
126.138193   1477.271057   -22.945479   
127.142377   1477.701421   -5.470218   
152.351085   1538.434470   -22.658569   
153.355268   1538.864835   -5.183308   
154.884229   1402.624628   -23.546295   
155.718692   1402.982255   -5.946501   
181.283921   1464.223908   -23.307878   
182.118383   1464.581535   -5.708083   
184.648741   1328.760058   -23.723127   
185.304726   1329.041195   -6.245191   
210.865645   1389.932834   -23.535703   
211.521630   1390.213970   -6.057767   
214.821892   1256.659122   -23.466884   
215.299810   1256.863944   -6.363299   
240.477270   1316.521670   -23.330336   
240.955188   1316.726492   -6.226751   
244.785146   1187.292171   -22.786068   
245.094044   1187.424555   -6.305719   
269.505669   1244.973390   -22.697811   
269.814566   1245.105774   -6.217463   
273.936928   1121.583964   -21.705253   
274.093327   1121.650992   -6.084450   
297.368132   1176.256774   -21.660567   
297.524532   1176.323802   -6.039764   
301.715714   1060.384070   -20.262618   
301.741984   1060.395329   -5.717376   
323.533577   1111.292417   -20.255112   
323.559847   1111.303676   -5.709870   
327.619164   1004.443239   -18.506808   
327.541612   1004.410003   -5.226762   
347.539233   1050.923400   -18.528965   
347.461681   1050.890164   -5.248919   
351.218396   954.396529   -16.493460   
351.065288   954.330912   -4.637605   
369.002178   995.892022   -16.537205   
368.849071   995.826404   -4.681350   
372.167010   910.753341   -14.281741   
371.966719   910.667502   -3.976029   
387.625577   946.823331   -14.338967   
387.425287   946.737493   -4.033255   
390.204988   873.893970   -11.931162   
389.984402   873.799433   -3.267835   
403.199978   904.215613   -11.994187   
402.979392   904.121076   -3.330860   
405.157979   844.071833   -9.498892   
404.941279   843.978962   -2.537309   
415.600353   868.437372   -9.560806   
415.383653   868.344501   -2.599223   
416.932797   821.420288   -7.037679   
416.740637   821.337934   -1.806336   
424.779812   839.729988   -7.092582   
424.587652   839.647634   -1.861239   
425.510090   805.962816   -4.594437   
425.359168   805.898135   -1.093840   
430.760986   818.214907   -4.637558   
430.610064   818.150226   -1.136960   
430.935168   797.625377   -2.209438   
430.838142   797.583794   -0.415505   
433.626068   803.904142   -2.237160   
433.529041   803.862559   -0.443227   
433.307917   796.249863   0.083946   
433.273593   796.235153   0.216240   
433.506358   796.712892   0.074139   
433.472034   796.698182   0.206433   
432.772551   801.607754   2.259082   
432.806270   801.622205   0.792060   
430.572018   796.473176   2.268716   
430.605737   796.487627   0.801694   
429.507820   813.413300   4.295609   
429.611949   813.457926   1.305413   
425.022526   802.947614   4.325360   
425.126655   802.992241   1.335164   
423.718043   831.335763   6.178781   
423.892518   831.410538   1.752186   
417.078150   815.842681   6.228631   
417.252625   815.917456   1.802035   
415.625229   855.010450   7.898722   
415.868090   855.114533   2.130296   
406.972591   834.820960   7.968111   
407.215452   834.925043   2.199685   
405.462362   884.048407   9.449672   
405.770236   884.180352   2.439316   
394.946828   859.512160   9.537636   
395.254701   859.644106   2.527279   
393.467816   918.044800   10.829272   
393.836331   918.202735   2.680118   
381.244085   889.522762   10.934562   
381.612600   889.680697   2.785409   
379.880829   956.586048   12.037939   
380.304948   956.767813   2.854591   
366.105806   924.444328   12.159116   
366.529925   924.626093   2.975767   
364.937871   999.255845   13.078328   
365.412140   999.459103   2.965387   
349.768460   963.860553   13.213833   
350.242729   964.063811   3.100893   
348.869764   1045.640234   13.954900   
349.388488   1045.862544   3.015749   
332.461037   1007.353204   14.103107   
332.979760   1007.575514   3.163956   
331.899390   1095.331863   14.673583   
332.456742   1095.570728   3.009364   
314.403063   1054.507098   14.832826   
314.960414   1054.745963   3.168607   
314.239852   1147.933577   15.241500   
314.829938   1148.186471   2.950272   
295.803009   1104.914278   15.410096   
296.393095   1105.167172   3.118868   
296.092972   1203.061438   15.666775   
296.709858   1203.325818   2.842796   
276.857003   1158.177510   15.843028   
277.473889   1158.441890   3.019049   
277.648047   1260.347266   15.958360   
278.285766   1260.620574   2.691494   
257.747748   1213.913235   16.140565   
258.385467   1214.186542   2.873699   
259.080799   1319.440733   16.125896   
259.733351   1319.720397   2.501120   
238.643635   1271.754016   16.312339   
239.296186   1272.033680   2.687563   
240.552497   1380.011047   16.179581   
241.213854   1380.294485   2.276588   
219.698008   1331.350573   16.368540   
220.359365   1331.634011   2.465547   
222.209251   1441.748212   16.130021   
222.873372   1442.032835   2.022928   
201.048612   1392.373389   16.319770   
201.712733   1392.658012   2.212677   
204.181488   1504.363843   15.988071   
204.842353   1504.647071   1.745232   
182.817228   1454.513903   16.176890   
183.478093   1454.797131   1.934050   
186.583651   1567.591496   15.764650   
187.235317   1567.870781   1.448582   
165.109549   1517.485257   15.950840   
165.761215   1517.764543   1.634772   
169.514157   1631.186475   15.470518   
170.150835   1631.459337   1.137972   
148.015337   1581.022563   15.652426   
148.652016   1581.295425   1.319880   
153.055659   1694.925061   15.116033   
153.671819   1695.189129   0.818200   
131.608909   1644.882643   15.292079   
132.225068   1645.146712   0.994246   
137.275675   1758.603117   14.710875   
137.866166   1758.856184   0.493755   
115.949995   1708.843197   14.879587   
116.540486   1709.096265   0.662467   
122.227610   1822.034031   14.263739   
122.787803   1822.274114   0.168684   
101.085028   1772.701340   14.423794   
101.645221   1772.941423   0.328739   
107.952220   1885.045960   13.782014   
108.478168   1885.271367   -0.153551   
87.048872   1836.271483   13.932285   
87.574820   1836.496889   -0.003280   
94.479553   1947.478368   13.271449   
94.968155   1947.687769   -0.470222   
73.867046   1899.382519   13.411050   
74.355648   1899.591920   -0.330622   
81.831378   2009.177833   12.735809   
82.280551   2009.370335   -0.779487   
61.558434   1961.874295   12.864144   
62.007607   1962.066798   -0.651152   
70.024113   2069.993158   12.176537   
70.432964   2070.168380   -1.080546   
50.138489   2023.593368   12.293352   
50.547340   2023.768590   -0.963731   
59.072245   2129.769800   11.592429   
59.441237   2129.927939   -1.373784   
39.622927   2084.388056   11.697855   
39.991918   2084.546196   -1.268357   
48.992230   2188.343659   10.979328   
49.323333   2188.485560   -1.660913   
30.031869   2144.102817   11.073928   
30.362972   2144.244718   -1.566312   
39.806830   2245.534317   10.329853   
40.103656   2245.661528   -1.945095   
21.394408   2202.571999   10.414661   
21.691234   2202.699210   -1.860287   
31.549841   2301.137781   9.633172   
31.817758   2301.252602   -2.231042   
13.753520   2259.613032   9.709720   
14.021437   2259.727853   -2.154494   
24.271157   2354.918861   8.874819   
24.517367   2355.024379   -2.525098   
7.171281   2315.019149   8.945165   
7.417490   2315.124668   -2.454753   
18.042075   2406.603298   8.036585   
18.275657   2406.703405   -2.835289   
1.734264   2368.551740   8.103322   
1.967846   2368.651846   -2.768552   
12.960764   2455.869787   7.096473   
13.192677   2455.969178   -3.171335   
-2.440947   2419.932461   7.162733   
-2.209034   2420.031852   -3.105074   
9.157769   2502.342058   6.028746   
9.400802   2502.446215   -3.544624   
-5.202286   2468.835265   6.098184   
-4.959253   2468.939422   -3.475186   
6.801444   2545.581220   4.804063   
7.070113   2545.696364   -3.968145   
-6.356868   2514.878492   4.880825   
-6.088199   2514.993636   -3.891382   
-7.342076   2463.879576   -3.985447   
-7.824531   2463.672810   5.812471   
7.354800   2498.172287   -4.123291   
6.872345   2497.965521   5.674626   
-8.174438   2417.242890   -2.127046   
-8.497854   2417.104283   7.105358   
5.674169   2449.556306   -2.219451   
5.350753   2449.417699   7.012954   
-10.167965   2372.571187   -0.652757   
-10.189181   2372.562094   8.100208   
2.961482   2403.206564   -0.658819   
2.940266   2403.197471   8.094146   
-13.046813   2329.370306   0.231439   
-12.659801   2329.536168   8.638804   
-0.435766   2358.796082   0.342014   
-0.048754   2358.961944   8.749378   
-16.421734   2287.015117   0.381483   
-15.553518   2287.387209   8.610297   
-4.078513   2315.815965   0.629545   
-3.210297   2316.188058   8.858359   
-19.825648   2244.800719   -0.290889   
-18.432674   2245.397708   7.946510   
-7.469549   2273.631618   0.107103   
-6.076575   2274.228606   8.344503   
-22.745359   2201.988737   -1.823616   
-20.810598   2202.817921   6.617764   
-10.083289   2231.533568   -1.270827   
-8.148528   2232.362751   7.170553   
-24.650082   2157.849276   -4.208927   
-22.180885   2158.907504   4.629374   
-11.392631   2188.783329   -3.503442   
-8.923434   2189.841557   5.334859   
-25.017487   2111.699027   -7.397258   
-22.044015   2112.973372   2.018697   
-10.893555   2144.654870   -6.547695   
-7.920083   2145.929215   2.868260   
-23.357806   2062.935752   -11.300799   
-19.931701   2064.404082   -1.147533   
-8.127907   2098.472184   -10.321912   
-4.701802   2099.940515   -0.168646   
-19.236262   2011.069044   -15.797155   
-15.429158   2012.700660   -4.775965   
-2.704476   2049.643210   -14.709411   
1.102627   2051.274826   -3.688221   
-12.293736   1955.746881   -20.733639   
-8.195192   1957.503400   -8.749893   
5.681881   1997.689989   -19.562626   
9.780426   1999.446508   -7.578881   
-2.265202   1896.777130   -25.932658   
2.020290   1898.613769   -12.933385   
17.233708   1942.274588   -24.708232   
21.519201   1944.111227   -11.708958   
11.004889   1834.142960   -31.198503   
15.362029   1836.010305   -17.176503   
32.037890   1883.219961   -29.953606   
36.395030   1885.087307   -15.931606   
27.551287   1768.011056   -36.325599   
31.859247   1769.857324   -21.321692   
50.057147   1820.524729   -35.094753   
54.365107   1822.370997   -20.090846   
47.281770   1698.731680   -41.108030   
51.420420   1700.505387   -25.211149   
71.127091   1754.370762   -39.925558   
75.265741   1756.144470   -24.028678   
69.977062   1626.830020   -45.349837   
73.833727   1628.482877   -28.694794   
94.959627   1685.122672   -44.247933   
98.816292   1686.775529   -27.592889   
95.297406   1552.988831   -48.875344   
98.773562   1554.478612   -31.638256   
121.153037   1613.318636   -47.882156   
124.629193   1614.808417   -30.645069   
122.795852   1478.023068   -51.538629   
125.813085   1479.316168   -33.930192   
149.208507   1539.652597   -50.676563   
152.225741   1540.945697   -33.068126   
151.937653   1402.847914   -53.231260   
154.442252   1403.921314   -35.488223   
178.552208   1464.948542   -52.515660   
181.056807   1466.021942   -34.772623   
182.124573   1328.442225   -53.887493   
184.090229   1329.284649   -36.262910   
208.561447   1390.128263   -53.325877   
210.527103   1390.970687   -35.701294   
212.722344   1255.809824   -53.486465   
214.150674   1256.421965   -36.239376   
238.592977   1316.174634   -53.078371   
240.021307   1316.786775   -35.831282   
243.089198   1185.941235   -52.051198   
244.008091   1186.335047   -35.436454   
268.011313   1244.092837   -51.788657   
268.930206   1244.486648   -35.173914   
272.603355   1119.778309   -49.644632   
273.063385   1119.975465   -33.903542   
296.214991   1174.872126   -49.513195   
296.675020   1175.069282   -33.772105   
300.687501   1058.183780   -46.363237   
300.756894   1058.213520   -31.715583   
322.658983   1109.450571   -46.343411   
322.728376   1109.480310   -31.695756   
326.828761   1001.917225   -42.328961   
326.587530   1001.813840   -28.966787   
346.872022   1048.684835   -42.397884   
346.630791   1048.581450   -29.035710   
350.593205   951.618200   -37.680402   
350.127091   951.418437   -25.763764   
368.468162   993.326433   -37.813578   
368.002048   993.126670   -25.896940   
371.634551   907.796633   -32.564058   
371.029366   907.537268   -22.218747   
387.152518   944.005223   -32.736968   
386.547333   943.745858   -22.391657   
389.697294   870.829990   -27.126370   
389.034111   870.545769   -18.443450   
402.721674   901.220211   -27.315851   
402.058492   900.935990   -18.632931   
404.614958   840.966285   -21.507083   
403.966438   840.688348   -14.543979   
415.059614   865.337149   -21.692375   
414.411094   865.059212   -14.729271   
416.304429   818.331700   -15.834210   
415.732388   818.086540   -10.616992   
424.130256   836.591963   -15.997651   
423.558215   836.346803   -10.780433   
424.757497   802.941547   -10.220676   
424.311679   802.750482   -6.747183   
429.967736   815.098772   -10.348052   
429.521918   814.907707   -6.874559   
430.030706   794.713287   -4.762525   
429.748598   794.592383   -3.005979   
432.665524   800.861196   -4.843127   
432.383416   800.740293   -3.086582   
432.234492   793.480508   0.461521   
432.141959   793.440851   0.548709   
432.365274   793.785664   0.435083   
432.272740   793.746007   0.522270   
431.522409   799.006957   5.389474   
431.634899   799.055167   3.871946   
429.246117   793.695607   5.421614   
429.358606   793.743817   3.904086   
428.081021   810.999953   9.974757   
428.405106   811.138847   6.930668   
423.514888   800.345642   10.067352   
423.838973   800.484535   7.023263   
422.120845   829.122738   14.184446   
422.655876   829.352037   9.702255   
415.397558   813.435068   14.337312   
415.932589   813.664367   9.855121   
413.868517   853.005519   17.997340   
414.608248   853.322546   12.172978   
405.131974   832.620251   18.208691   
405.871704   832.937279   12.384329   
403.560245   882.255114   21.402025   
404.494287   882.655418   14.336464   
392.961904   857.525653   21.668894   
393.895947   857.925957   14.603334   
391.436451   916.463230   24.395096   
392.551519   916.941116   16.192294   
379.132249   887.753425   24.713687   
380.247317   888.231312   16.510885   
377.737500   955.213474   26.979595   
379.018397   955.762430   17.744779   
363.885275   922.891615   27.345566   
365.166172   923.440571   18.110749   
362.700321   998.087261   29.163716   
364.130673   998.700269   19.001954   
347.457678   962.521095   29.572388   
348.888031   963.134103   19.410626   
346.555754   1044.668771   30.959759   
348.118520   1045.338528   19.974788   
330.078297   1006.221370   31.406264   
331.641063   1006.891127   20.421292   
329.526450   1094.549113   32.383337   
331.204240   1095.268166   20.676573   
311.966305   1053.575440   32.862705   
313.644094   1054.294493   21.155942   
311.825179   1147.329844   33.452761   
313.600423   1148.090663   21.122482   
293.329761   1104.173870   33.959973   
295.105005   1104.934689   21.629695   
293.653433   1202.625942   34.188586   
295.508453   1203.420951   21.329234   
274.364405   1157.618211   34.718592   
276.219425   1158.413220   21.859240   
275.200236   1260.068317   34.613253   
277.117257   1260.889897   21.314846   
255.252626   1213.523894   35.160973   
257.169647   1214.345474   21.862567   
256.641119   1319.305900   34.750778   
258.602262   1320.146390   21.098420   
236.162583   1271.522649   35.311104   
238.123726   1272.363139   21.658747   
238.137234   1380.007341   34.626457   
240.124517   1380.859034   20.699938   
217.247456   1331.264527   35.194252   
219.234739   1332.116220   21.267733   
219.834603   1441.862286   34.266544   
221.829989   1442.717451   20.140038   
198.644844   1392.419516   34.836654   
200.640230   1393.274681   20.710148   
201.863552   1504.582227   33.697879   
203.849042   1505.433151   19.439742   
180.476347   1454.678749   34.265162   
182.461837   1455.529673   20.007025   
184.338334   1567.900869   32.947448   
186.296137   1568.739927   18.620139   
162.847372   1517.755290   33.506820   
164.805174   1518.594348   19.179511   
167.357022   1631.573974   32.041863   
169.269788   1632.393730   17.701994   
145.847220   1581.384434   32.588367   
147.759985   1582.204190   18.248499   
151.001702   1695.378626   31.006767   
152.852831   1696.171967   16.705298   
129.549498   1645.323484   31.535661   
131.400627   1646.116825   17.234192   
135.339030   1759.111871   29.866158   
137.113047   1759.872163   15.648753   
114.012924   1709.350956   30.373019   
115.786940   1710.111249   16.155615   
120.421201   1822.588677   28.641644   
122.104182   1823.309955   14.549208   
99.282547   1773.265151   29.122496   
100.965528   1773.986429   15.030060   
106.287367   1885.639207   27.351659   
107.867417   1886.316371   13.421047   
85.391448   1836.882062   27.803102   
86.971498   1837.559227   13.872489   
92.965541   1948.105350   26.010626   